<?xml version='1.0' encoding='utf-8'?>
<configuration xmlns:xsi="http://www.w3.org/2001/XMLSchema-instance" xsi:noNamespaceSchemaLocation="http://sumo.dlr.de/xsd/sumoConfiguration.xsd"><input><net-file value="baseline.net.xml" /><route-files value="baseline_flows.xml" /></input><time><begin value="0" /><end value="6000" /><step-length value="1.0" /></time><processing><time-to-teleport value="300" /><ignore-junction-blocker value="60" /><collision.action value="warn" /><random value="true" /></processing><report><verbose value="true" /><duration-log.statistics value="true" /><log value="simulation.log" /></report><output><tripinfo-output value="tripinfo.xml" /><summary-output value="summary.xml" /><statistic-output value="statistics.xml" /><queue-output value="queue.xml" /><lanechange-output value="lanechange.xml" /></output><gui_only><gui-settings-file value="gui-settings.xml" /><start value="false" /><quit-on-end value="false" /></gui_only></configuration>